<?xml version="1.0" encoding="UTF-8"?>

<!-- generated on 2023-11-14 06:49:58 by Eclipse SUMO GUI Version 1.18.0
<configuration xmlns:xsi="http://www.w3.org/2001/XMLSchema-instance" xsi:noNamespaceSchemaLocation="http://sumo.dlr.de/xsd/sumoConfiguration.xsd">

    <input>
        <net-file value="C:\Users\nomar\OneDrive - National University of Singapore\CS5446 AI Planning and Decision Making\Project\SumoProject\TwoLoops\TwoLoops.net.xml"/>
        <route-files value="C:\Users\nomar\OneDrive - National University of Singapore\CS5446 AI Planning and Decision Making\Project\SumoProject\TwoLoops\TwoLoops.rou.xml"/>
    </input>

    <output>
        <tripinfo-output value="C:\Users\nomar\OneDrive - National University of Singapore\CS5446 AI Planning and Decision Making\Project\SumoProject\TwoLoops\TwoLoops-tripinfo.log.xml"/>
        <statistic-output value="C:\Users\nomar\OneDrive - National University of Singapore\CS5446 AI Planning and Decision Making\Project\SumoProject\TwoLoops\TwoLoops-statistics.log.xml"/>
    </output>

</configuration>
-->

<tripinfos xmlns:xsi="http://www.w3.org/2001/XMLSchema-instance" xsi:noNamespaceSchemaLocation="http://sumo.dlr.de/xsd/tripinfo_file.xsd">
    <tripinfo id="f_01.0" depart="0.00" departLane="-E3_0" departPos="5.10" departSpeed="14.72" departDelay="0.00" arrival="139.00" arrivalLane="E4_0" arrivalPos="188.91" arrivalSpeed="14.64" duration="139.00" routeLength="734.49" waitingTime="60.00" waitingCount="1" stopTime="0.00" timeLoss="88.28" rerouteNo="0" devices="tripinfo_f_01.0" vType="t_1" speedFactor="1.06" vaporized=""/>
    <tripinfo id="f_23.0" depart="2.00" departLane="-E3_1" departPos="5.10" departSpeed="15.15" departDelay="0.00" arrival="139.00" arrivalLane="E4_1" arrivalPos="188.91" arrivalSpeed="14.99" duration="137.00" routeLength="739.66" waitingTime="60.00" waitingCount="1" stopTime="0.00" timeLoss="86.46" rerouteNo="0" devices="tripinfo_f_23.0" vType="t_1" speedFactor="1.09" vaporized=""/>
    <tripinfo id="f_14.0" depart="3.00" departLane="-E3_0" departPos="5.10" departSpeed="15.60" departDelay="0.00" arrival="141.00" arrivalLane="E4_2" arrivalPos="188.91" arrivalSpeed="15.27" duration="138.00" routeLength="729.34" waitingTime="59.00" waitingCount="1" stopTime="0.00" timeLoss="89.46" rerouteNo="0" devices="tripinfo_f_14.0" vType="t_1" speedFactor="1.12" vaporized=""/>
    <tripinfo id="f_23.1" depart="11.00" departLane="-E3_0" departPos="5.10" departSpeed="16.09" departDelay="0.00" arrival="141.00" arrivalLane="E4_0" arrivalPos="188.91" arrivalSpeed="16.07" duration="130.00" routeLength="734.49" waitingTime="52.00" waitingCount="1" stopTime="0.00" timeLoss="82.51" rerouteNo="0" devices="tripinfo_f_23.1" vType="t_1" speedFactor="1.16" vaporized=""/>
    <tripinfo id="f_14.1" depart="14.00" departLane="-E3_0" departPos="5.10" departSpeed="15.72" departDelay="0.71" arrival="142.00" arrivalLane="E4_0" arrivalPos="188.91" arrivalSpeed="15.58" duration="128.00" routeLength="734.49" waitingTime="50.00" waitingCount="1" stopTime="0.00" timeLoss="79.95" rerouteNo="0" devices="tripinfo_f_14.1" vType="t_1" speedFactor="1.13" vaporized=""/>
    <tripinfo id="f_01.1" depart="12.00" departLane="-E3_1" departPos="5.10" departSpeed="14.14" departDelay="0.00" arrival="144.00" arrivalLane="E4_1" arrivalPos="188.91" arrivalSpeed="13.84" duration="132.00" routeLength="739.66" waitingTime="54.00" waitingCount="1" stopTime="0.00" timeLoss="77.33" rerouteNo="0" devices="tripinfo_f_01.1" vType="t_1" speedFactor="1.02" vaporized=""/>
    <tripinfo id="f_23.2" depart="20.00" departLane="-E3_0" departPos="5.10" departSpeed="13.82" departDelay="0.00" arrival="146.00" arrivalLane="E4_0" arrivalPos="188.91" arrivalSpeed="13.81" duration="126.00" routeLength="734.49" waitingTime="43.00" waitingCount="1" stopTime="0.00" timeLoss="71.35" rerouteNo="0" devices="tripinfo_f_23.2" vType="t_1" speedFactor="0.99" vaporized=""/>
    <tripinfo id="f_14.2" depart="24.00" departLane="-E3_1" departPos="5.10" departSpeed="14.31" departDelay="0.43" arrival="146.00" arrivalLane="E4_1" arrivalPos="188.91" arrivalSpeed="14.11" duration="122.00" routeLength="734.50" waitingTime="30.00" waitingCount="1" stopTime="0.00" timeLoss="68.23" rerouteNo="0" devices="tripinfo_f_14.2" vType="t_1" speedFactor="1.03" vaporized=""/>
    <tripinfo id="f_31.0" depart="0.00" departLane="-E2_2" departPos="5.10" departSpeed="15.04" departDelay="0.00" arrival="147.00" arrivalLane="E5_0" arrivalPos="86.34" arrivalSpeed="13.30" duration="147.00" routeLength="936.43" waitingTime="26.00" waitingCount="2" stopTime="0.00" timeLoss="83.15" rerouteNo="0" devices="tripinfo_f_31.0" vType="t_5" speedFactor="1.08" vaporized=""/>
    <tripinfo id="f_32.0" depart="1.00" departLane="-E2_2" departPos="5.10" departSpeed="12.31" departDelay="0.00" arrival="149.00" arrivalLane="E5_1" arrivalPos="86.34" arrivalSpeed="11.22" duration="148.00" routeLength="941.58" waitingTime="26.00" waitingCount="2" stopTime="0.00" timeLoss="67.60" rerouteNo="0" devices="tripinfo_f_32.0" vType="t_5" speedFactor="0.89" vaporized=""/>
    <tripinfo id="f_34.0" depart="3.00" departLane="-E2_2" departPos="5.10" departSpeed="7.48" departDelay="0.00" arrival="150.00" arrivalLane="E5_0" arrivalPos="86.34" arrivalSpeed="12.86" duration="147.00" routeLength="936.43" waitingTime="24.00" waitingCount="2" stopTime="0.00" timeLoss="71.17" rerouteNo="0" devices="tripinfo_f_34.0" vType="t_5" speedFactor="0.93" vaporized=""/>
    <tripinfo id="f_01.2" depart="24.00" departLane="-E3_0" departPos="5.10" departSpeed="12.51" departDelay="0.00" arrival="150.00" arrivalLane="E4_0" arrivalPos="188.91" arrivalSpeed="12.46" duration="126.00" routeLength="734.49" waitingTime="30.00" waitingCount="1" stopTime="0.00" timeLoss="65.90" rerouteNo="0" devices="tripinfo_f_01.2" vType="t_1" speedFactor="0.90" vaporized=""/>
    <tripinfo id="f_33.0" depart="2.00" departLane="-E2_2" departPos="5.10" departSpeed="10.16" departDelay="0.00" arrival="151.00" arrivalLane="E5_1" arrivalPos="86.34" arrivalSpeed="11.68" duration="149.00" routeLength="936.42" waitingTime="22.00" waitingCount="1" stopTime="0.00" timeLoss="79.73" rerouteNo="0" devices="tripinfo_f_33.0" vType="t_5" speedFactor="1.03" vaporized=""/>
    <tripinfo id="f_23.3" depart="29.00" departLane="-E3_1" departPos="5.10" departSpeed="11.81" departDelay="0.00" arrival="151.00" arrivalLane="E4_1" arrivalPos="188.91" arrivalSpeed="11.52" duration="122.00" routeLength="739.66" waitingTime="27.00" waitingCount="1" stopTime="0.00" timeLoss="56.62" rerouteNo="0" devices="tripinfo_f_23.3" vType="t_1" speedFactor="0.85" vaporized=""/>
    <tripinfo id="f_31.1" depart="13.00" departLane="-E2_2" departPos="5.10" departSpeed="11.24" departDelay="0.14" arrival="152.00" arrivalLane="E5_0" arrivalPos="86.34" arrivalSpeed="12.33" duration="139.00" routeLength="931.27" waitingTime="12.00" waitingCount="1" stopTime="0.00" timeLoss="59.62" rerouteNo="0" devices="tripinfo_f_31.1" vType="t_5" speedFactor="0.89" vaporized=""/>
    <tripinfo id="f_14.3" depart="34.00" departLane="-E3_0" departPos="5.10" departSpeed="13.83" departDelay="0.14" arrival="152.00" arrivalLane="E4_0" arrivalPos="188.91" arrivalSpeed="13.42" duration="118.00" routeLength="734.49" waitingTime="22.00" waitingCount="1" stopTime="0.00" timeLoss="63.05" rerouteNo="0" devices="tripinfo_f_14.3" vType="t_1" speedFactor="1.00" vaporized=""/>
    <tripinfo id="f_01.3" depart="36.00" departLane="-E3_1" departPos="5.10" departSpeed="12.49" departDelay="0.00" arrival="152.00" arrivalLane="E4_2" arrivalPos="188.91" arrivalSpeed="12.18" duration="116.00" routeLength="734.51" waitingTime="21.00" waitingCount="1" stopTime="0.00" timeLoss="54.41" rerouteNo="0" devices="tripinfo_f_01.3" vType="t_1" speedFactor="0.90" vaporized=""/>
    <tripinfo id="f_32.1" depart="14.00" departLane="-E2_2" departPos="5.10" departSpeed="8.74" departDelay="0.14" arrival="153.00" arrivalLane="E5_0" arrivalPos="86.34" arrivalSpeed="12.64" duration="139.00" routeLength="936.43" waitingTime="14.00" waitingCount="1" stopTime="0.00" timeLoss="62.98" rerouteNo="0" devices="tripinfo_f_32.1" vType="t_5" speedFactor="0.92" vaporized=""/>
    <tripinfo id="f_33.1" depart="15.00" departLane="-E2_2" departPos="5.10" departSpeed="5.54" departDelay="0.14" arrival="153.00" arrivalLane="E5_1" arrivalPos="86.34" arrivalSpeed="12.39" duration="138.00" routeLength="936.42" waitingTime="13.00" waitingCount="1" stopTime="0.00" timeLoss="61.72" rerouteNo="0" devices="tripinfo_f_33.1" vType="t_5" speedFactor="0.93" vaporized=""/>
    <tripinfo id="f_23.4" depart="38.00" departLane="-E3_0" departPos="5.10" departSpeed="15.15" departDelay="0.00" arrival="153.00" arrivalLane="E4_0" arrivalPos="188.91" arrivalSpeed="13.33" duration="115.00" routeLength="734.49" waitingTime="19.00" waitingCount="1" stopTime="0.00" timeLoss="67.22" rerouteNo="0" devices="tripinfo_f_23.4" vType="t_1" speedFactor="1.12" vaporized=""/>
    <tripinfo id="f_14.4" depart="45.00" departLane="-E3_1" departPos="5.10" departSpeed="13.06" departDelay="0.86" arrival="153.00" arrivalLane="E4_1" arrivalPos="188.91" arrivalSpeed="12.95" duration="108.00" routeLength="739.66" waitingTime="15.00" waitingCount="1" stopTime="0.00" timeLoss="48.97" rerouteNo="0" devices="tripinfo_f_14.4" vType="t_1" speedFactor="0.94" vaporized=""/>
    <tripinfo id="f_01.4" depart="48.00" departLane="-E3_1" departPos="5.10" departSpeed="10.77" departDelay="0.00" arrival="154.00" arrivalLane="E4_2" arrivalPos="188.91" arrivalSpeed="13.57" duration="106.00" routeLength="734.51" waitingTime="13.00" waitingCount="1" stopTime="0.00" timeLoss="49.18" rerouteNo="0" devices="tripinfo_f_01.4" vType="t_1" speedFactor="0.98" vaporized=""/>
    <tripinfo id="f_23.5" depart="47.00" departLane="-E3_0" departPos="5.10" departSpeed="13.27" departDelay="0.00" arrival="155.00" arrivalLane="E4_0" arrivalPos="188.91" arrivalSpeed="12.88" duration="108.00" routeLength="734.49" waitingTime="13.00" waitingCount="1" stopTime="0.00" timeLoss="51.69" rerouteNo="0" devices="tripinfo_f_23.5" vType="t_1" speedFactor="0.96" vaporized=""/>
    <tripinfo id="f_23.6" depart="56.00" departLane="-E3_1" departPos="5.10" departSpeed="7.92" departDelay="0.00" arrival="155.00" arrivalLane="E4_1" arrivalPos="188.91" arrivalSpeed="13.76" duration="99.00" routeLength="739.66" waitingTime="7.00" waitingCount="1" stopTime="0.00" timeLoss="44.19" rerouteNo="0" devices="tripinfo_f_23.6" vType="t_1" speedFactor="1.02" vaporized=""/>
    <tripinfo id="f_14.5" depart="55.00" departLane="-E3_0" departPos="5.10" departSpeed="10.78" departDelay="0.57" arrival="157.00" arrivalLane="E4_0" arrivalPos="188.91" arrivalSpeed="13.68" duration="102.00" routeLength="734.49" waitingTime="6.00" waitingCount="1" stopTime="0.00" timeLoss="48.14" rerouteNo="0" devices="tripinfo_f_14.5" vType="t_1" speedFactor="1.01" vaporized=""/>
    <tripinfo id="f_14.6" depart="65.00" departLane="-E3_1" departPos="5.10" departSpeed="3.83" departDelay="0.28" arrival="158.00" arrivalLane="E4_1" arrivalPos="188.91" arrivalSpeed="12.96" duration="93.00" routeLength="739.66" waitingTime="0.00" waitingCount="0" stopTime="0.00" timeLoss="34.62" rerouteNo="0" devices="tripinfo_f_14.6" vType="t_1" speedFactor="0.95" vaporized=""/>
    <tripinfo id="f_01.6" depart="72.00" departLane="-E3_1" departPos="5.10" departSpeed="3.67" departDelay="0.00" arrival="158.00" arrivalLane="E4_2" arrivalPos="188.91" arrivalSpeed="14.49" duration="86.00" routeLength="734.51" waitingTime="0.00" waitingCount="0" stopTime="0.00" timeLoss="33.60" rerouteNo="0" devices="tripinfo_f_01.6" vType="t_1" speedFactor="1.06" vaporized=""/>
    <tripinfo id="f_01.5" depart="60.00" departLane="-E3_0" departPos="5.10" departSpeed="7.92" departDelay="0.00" arrival="161.00" arrivalLane="E4_0" arrivalPos="188.91" arrivalSpeed="11.37" duration="101.00" routeLength="734.49" waitingTime="3.00" waitingCount="1" stopTime="0.00" timeLoss="35.83" rerouteNo="0" devices="tripinfo_f_01.5" vType="t_1" speedFactor="0.83" vaporized=""/>
    <tripinfo id="f_23.8" depart="75.00" departLane="-E3_1" departPos="5.10" departSpeed="3.09" departDelay="1.00" arrival="162.00" arrivalLane="E4_1" arrivalPos="188.91" arrivalSpeed="12.62" duration="87.00" routeLength="739.66" waitingTime="0.00" waitingCount="0" stopTime="0.00" timeLoss="26.61" rerouteNo="0" devices="tripinfo_f_23.8" vType="t_1" speedFactor="0.92" vaporized=""/>
    <tripinfo id="f_01.7" depart="85.00" departLane="-E3_1" departPos="5.10" departSpeed="5.79" departDelay="1.00" arrival="162.00" arrivalLane="E4_2" arrivalPos="188.91" arrivalSpeed="15.36" duration="77.00" routeLength="734.51" waitingTime="0.00" waitingCount="0" stopTime="0.00" timeLoss="27.38" rerouteNo="0" devices="tripinfo_f_01.7" vType="t_1" speedFactor="1.12" vaporized=""/>
    <tripinfo id="f_23.7" depart="65.00" departLane="-E3_0" departPos="5.10" departSpeed="3.83" departDelay="0.00" arrival="163.00" arrivalLane="E4_0" arrivalPos="188.91" arrivalSpeed="12.89" duration="98.00" routeLength="734.49" waitingTime="0.00" waitingCount="0" stopTime="0.00" timeLoss="41.37" rerouteNo="0" devices="tripinfo_f_23.7" vType="t_1" speedFactor="0.97" vaporized=""/>
    <tripinfo id="f_14.7" depart="78.00" departLane="-E3_1" departPos="5.10" departSpeed="2.72" departDelay="3.00" arrival="163.00" arrivalLane="E4_1" arrivalPos="188.91" arrivalSpeed="13.30" duration="85.00" routeLength="739.66" waitingTime="0.00" waitingCount="0" stopTime="0.00" timeLoss="33.44" rerouteNo="0" devices="tripinfo_f_14.7" vType="t_1" speedFactor="1.07" vaporized=""/>
    <tripinfo id="f_23.10" depart="92.00" departLane="-E3_1" departPos="5.10" departSpeed="13.26" departDelay="0.00" arrival="165.00" arrivalLane="E4_1" arrivalPos="188.91" arrivalSpeed="14.57" duration="73.00" routeLength="739.66" waitingTime="0.00" waitingCount="0" stopTime="0.00" timeLoss="22.84" rerouteNo="0" devices="tripinfo_f_23.10" vType="t_1" speedFactor="1.11" vaporized=""/>
    <tripinfo id="f_23.9" depart="83.00" departLane="-E3_1" departPos="5.10" departSpeed="6.95" departDelay="0.00" arrival="167.00" arrivalLane="E4_0" arrivalPos="188.91" arrivalSpeed="11.34" duration="84.00" routeLength="739.66" waitingTime="0.00" waitingCount="0" stopTime="0.00" timeLoss="17.72" rerouteNo="0" devices="tripinfo_f_23.9" vType="t_1" speedFactor="0.82" vaporized=""/>
    <tripinfo id="f_01.8" depart="96.00" departLane="-E3_1" departPos="5.10" departSpeed="13.92" departDelay="0.00" arrival="168.00" arrivalLane="E4_1" arrivalPos="188.91" arrivalSpeed="13.54" duration="72.00" routeLength="739.66" waitingTime="0.00" waitingCount="0" stopTime="0.00" timeLoss="16.27" rerouteNo="0" devices="tripinfo_f_01.8" vType="t_1" speedFactor="1.00" vaporized=""/>
    <tripinfo id="f_14.8" depart="87.00" departLane="-E3_1" departPos="5.10" departSpeed="4.93" departDelay="1.71" arrival="169.00" arrivalLane="E4_0" arrivalPos="188.91" arrivalSpeed="12.61" duration="82.00" routeLength="734.49" waitingTime="0.00" waitingCount="0" stopTime="0.00" timeLoss="37.92" rerouteNo="0" devices="tripinfo_f_14.8" vType="t_1" speedFactor="1.23" vaporized=""/>
    <tripinfo id="f_12.0" depart="1.00" departLane="-E3_2" departPos="5.10" departSpeed="11.54" departDelay="0.00" arrival="211.00" arrivalLane="-E0_0" arrivalPos="97.01" arrivalSpeed="11.46" duration="210.00" routeLength="976.27" waitingTime="76.00" waitingCount="2" stopTime="0.00" timeLoss="119.63" rerouteNo="0" devices="tripinfo_f_12.0" vType="t_3" speedFactor="0.83" vaporized=""/>
    <tripinfo id="f_03.0" depart="2.00" departLane="-E3_2" departPos="5.10" departSpeed="9.53" departDelay="0.00" arrival="212.00" arrivalLane="-E0_0" arrivalPos="97.01" arrivalSpeed="11.30" duration="210.00" routeLength="976.27" waitingTime="76.00" waitingCount="2" stopTime="0.00" timeLoss="130.71" rerouteNo="0" devices="tripinfo_f_03.0" vType="t_3" speedFactor="0.94" vaporized=""/>
    <tripinfo id="f_24.0" depart="3.00" departLane="-E3_2" departPos="5.10" departSpeed="7.10" departDelay="0.00" arrival="215.00" arrivalLane="-E0_0" arrivalPos="97.01" arrivalSpeed="11.60" duration="212.00" routeLength="971.11" waitingTime="74.00" waitingCount="2" stopTime="0.00" timeLoss="136.56" rerouteNo="0" devices="tripinfo_f_24.0" vType="t_3" speedFactor="0.99" vaporized=""/>
    <tripinfo id="f_12.1" depart="12.00" departLane="-E3_2" departPos="5.10" departSpeed="11.08" departDelay="0.71" arrival="218.00" arrivalLane="-E0_0" arrivalPos="97.01" arrivalSpeed="11.98" duration="206.00" routeLength="976.27" waitingTime="68.00" waitingCount="2" stopTime="0.00" timeLoss="131.91" rerouteNo="0" devices="tripinfo_f_12.1" vType="t_3" speedFactor="1.01" vaporized=""/>
    <tripinfo id="f_24.1" depart="13.00" departLane="-E3_2" departPos="5.10" departSpeed="8.86" departDelay="1.00" arrival="221.00" arrivalLane="-E0_0" arrivalPos="97.01" arrivalSpeed="11.20" duration="208.00" routeLength="976.27" waitingTime="70.00" waitingCount="2" stopTime="0.00" timeLoss="132.05" rerouteNo="0" devices="tripinfo_f_24.1" vType="t_3" speedFactor="0.97" vaporized=""/>
    <tripinfo id="f_03.1" depart="14.00" departLane="-E3_2" departPos="5.10" departSpeed="6.00" departDelay="0.00" arrival="224.00" arrivalLane="-E0_0" arrivalPos="97.01" arrivalSpeed="11.91" duration="210.00" routeLength="971.11" waitingTime="68.00" waitingCount="2" stopTime="0.00" timeLoss="130.98" rerouteNo="0" devices="tripinfo_f_03.1" vType="t_3" speedFactor="0.95" vaporized=""/>
    <tripinfo id="f_24.2" depart="21.00" departLane="-E3_2" departPos="5.10" departSpeed="3.42" departDelay="0.00" arrival="290.00" arrivalLane="-E0_0" arrivalPos="97.01" arrivalSpeed="12.27" duration="269.00" routeLength="976.27" waitingTime="109.00" waitingCount="5" stopTime="0.00" timeLoss="191.39" rerouteNo="0" devices="tripinfo_f_24.2" vType="t_3" speedFactor="0.97" vaporized=""/>
    <tripinfo id="f_12.2" depart="38.00" departLane="-E3_2" departPos="5.10" departSpeed="0.47" departDelay="16.43" arrival="292.00" arrivalLane="-E0_0" arrivalPos="97.01" arrivalSpeed="11.56" duration="254.00" routeLength="976.27" waitingTime="98.00" waitingCount="4" stopTime="0.00" timeLoss="191.05" rerouteNo="0" devices="tripinfo_f_12.2" vType="t_3" speedFactor="1.18" vaporized=""/>
    <tripinfo id="f_03.2" depart="44.00" departLane="-E3_2" departPos="5.10" departSpeed="1.86" departDelay="18.00" arrival="296.00" arrivalLane="-E0_0" arrivalPos="97.01" arrivalSpeed="11.67" duration="252.00" routeLength="976.27" waitingTime="95.00" waitingCount="4" stopTime="0.00" timeLoss="180.01" rerouteNo="0" devices="tripinfo_f_03.2" vType="t_3" speedFactor="1.04" vaporized=""/>
    <tripinfo id="f_24.3" depart="48.00" departLane="-E3_2" departPos="5.10" departSpeed="2.15" departDelay="18.00" arrival="306.00" arrivalLane="-E0_0" arrivalPos="97.01" arrivalSpeed="12.87" duration="258.00" routeLength="976.27" waitingTime="113.00" waitingCount="3" stopTime="0.00" timeLoss="194.55" rerouteNo="0" devices="tripinfo_f_24.3" vType="t_3" speedFactor="1.17" vaporized=""/>
    <tripinfo id="f_34.1" depart="17.00" departLane="-E2_2" departPos="5.10" departSpeed="0.12" departDelay="1.14" arrival="320.00" arrivalLane="E5_1" arrivalPos="86.34" arrivalSpeed="10.40" duration="303.00" routeLength="936.42" waitingTime="165.00" waitingCount="3" stopTime="0.00" timeLoss="241.60" rerouteNo="0" devices="tripinfo_f_34.1" vType="t_5" speedFactor="1.15" vaporized=""/>
    <tripinfo id="f_31.2" depart="41.00" departLane="-E2_2" departPos="5.10" departSpeed="1.19" departDelay="15.29" arrival="320.00" arrivalLane="E5_0" arrivalPos="86.34" arrivalSpeed="10.51" duration="279.00" routeLength="931.27" waitingTime="152.00" waitingCount="1" stopTime="0.00" timeLoss="214.87" rerouteNo="0" devices="tripinfo_f_31.2" vType="t_5" speedFactor="1.09" vaporized=""/>
    <tripinfo id="f_23.11" depart="101.00" departLane="-E3_0" departPos="5.10" departSpeed="11.70" departDelay="0.00" arrival="334.00" arrivalLane="E4_0" arrivalPos="188.91" arrivalSpeed="14.75" duration="233.00" routeLength="739.66" waitingTime="142.00" waitingCount="2" stopTime="0.00" timeLoss="180.98" rerouteNo="0" devices="tripinfo_f_23.11" vType="t_1" speedFactor="1.06" vaporized=""/>
    <tripinfo id="f_14.9" depart="96.00" departLane="-E3_0" departPos="5.10" departSpeed="2.32" departDelay="0.43" arrival="336.00" arrivalLane="E4_0" arrivalPos="188.91" arrivalSpeed="13.18" duration="240.00" routeLength="739.66" waitingTime="144.00" waitingCount="2" stopTime="0.00" timeLoss="183.11" rerouteNo="0" devices="tripinfo_f_14.9" vType="t_1" speedFactor="0.97" vaporized=""/>
    <tripinfo id="f_01.9" depart="108.00" departLane="-E3_0" departPos="5.10" departSpeed="13.52" departDelay="0.00" arrival="337.00" arrivalLane="E4_0" arrivalPos="188.91" arrivalSpeed="13.83" duration="229.00" routeLength="734.49" waitingTime="126.00" waitingCount="3" stopTime="0.00" timeLoss="178.25" rerouteNo="0" devices="tripinfo_f_01.9" vType="t_1" speedFactor="1.05" vaporized=""/>
    <tripinfo id="f_14.10" depart="106.00" departLane="-E3_1" departPos="5.10" departSpeed="13.79" departDelay="0.14" arrival="338.00" arrivalLane="E4_2" arrivalPos="188.91" arrivalSpeed="13.43" duration="232.00" routeLength="734.51" waitingTime="140.00" waitingCount="2" stopTime="0.00" timeLoss="176.11" rerouteNo="0" devices="tripinfo_f_14.10" vType="t_1" speedFactor="0.99" vaporized=""/>
    <tripinfo id="f_14.11" depart="117.00" departLane="-E3_0" departPos="5.10" departSpeed="11.02" departDelay="0.85" arrival="339.00" arrivalLane="E4_0" arrivalPos="188.91" arrivalSpeed="14.40" duration="222.00" routeLength="734.49" waitingTime="118.00" waitingCount="3" stopTime="0.00" timeLoss="172.34" rerouteNo="0" devices="tripinfo_f_14.11" vType="t_1" speedFactor="1.08" vaporized=""/>
    <tripinfo id="f_23.12" depart="110.00" departLane="-E3_1" departPos="5.10" departSpeed="13.06" departDelay="0.00" arrival="340.00" arrivalLane="E4_1" arrivalPos="188.91" arrivalSpeed="12.82" duration="230.00" routeLength="739.66" waitingTime="136.00" waitingCount="2" stopTime="0.00" timeLoss="171.16" rerouteNo="0" devices="tripinfo_f_23.12" vType="t_1" speedFactor="0.94" vaporized=""/>
    <tripinfo id="f_01.10" depart="120.00" departLane="-E3_0" departPos="5.10" departSpeed="8.25" departDelay="0.00" arrival="341.00" arrivalLane="E4_0" arrivalPos="188.91" arrivalSpeed="14.69" duration="221.00" routeLength="734.49" waitingTime="113.00" waitingCount="3" stopTime="0.00" timeLoss="170.16" rerouteNo="0" devices="tripinfo_f_01.10" vType="t_1" speedFactor="1.08" vaporized=""/>
    <tripinfo id="f_23.13" depart="119.00" departLane="-E3_1" departPos="5.10" departSpeed="10.78" departDelay="0.00" arrival="342.00" arrivalLane="E4_1" arrivalPos="188.91" arrivalSpeed="14.12" duration="223.00" routeLength="739.66" waitingTime="126.00" waitingCount="2" stopTime="0.00" timeLoss="168.29" rerouteNo="0" devices="tripinfo_f_23.13" vType="t_1" speedFactor="1.03" vaporized=""/>
    <tripinfo id="f_14.12" depart="127.00" departLane="-E3_1" departPos="5.10" departSpeed="7.92" departDelay="0.57" arrival="343.00" arrivalLane="E4_2" arrivalPos="188.91" arrivalSpeed="14.72" duration="216.00" routeLength="734.51" waitingTime="121.00" waitingCount="2" stopTime="0.00" timeLoss="164.02" rerouteNo="0" devices="tripinfo_f_14.12" vType="t_1" speedFactor="1.07" vaporized=""/>
    <tripinfo id="f_23.14" depart="128.00" departLane="-E3_0" departPos="5.10" departSpeed="4.53" departDelay="0.00" arrival="343.00" arrivalLane="E4_0" arrivalPos="188.91" arrivalSpeed="13.71" duration="215.00" routeLength="734.49" waitingTime="105.00" waitingCount="3" stopTime="0.00" timeLoss="160.85" rerouteNo="0" devices="tripinfo_f_23.14" vType="t_1" speedFactor="1.00" vaporized=""/>
    <tripinfo id="f_23.15" depart="157.00" departLane="-E3_0" departPos="5.10" departSpeed="1.50" departDelay="20.00" arrival="346.00" arrivalLane="E4_0" arrivalPos="188.91" arrivalSpeed="13.31" duration="189.00" routeLength="734.49" waitingTime="80.00" waitingCount="2" stopTime="0.00" timeLoss="132.98" rerouteNo="0" devices="tripinfo_f_23.15" vType="t_1" speedFactor="0.98" vaporized=""/>
    <tripinfo id="f_23.16" depart="190.00" departLane="-E3_1" departPos="5.10" departSpeed="0.52" departDelay="44.00" arrival="347.00" arrivalLane="E4_2" arrivalPos="188.91" arrivalSpeed="14.69" duration="157.00" routeLength="734.51" waitingTime="64.00" waitingCount="1" stopTime="0.00" timeLoss="103.90" rerouteNo="0" devices="tripinfo_f_23.16" vType="t_1" speedFactor="1.06" vaporized=""/>
    <tripinfo id="f_14.13" depart="161.00" departLane="-E3_0" departPos="5.10" departSpeed="2.21" departDelay="24.28" arrival="348.00" arrivalLane="E4_0" arrivalPos="188.91" arrivalSpeed="14.67" duration="187.00" routeLength="734.49" waitingTime="79.00" waitingCount="2" stopTime="0.00" timeLoss="136.65" rerouteNo="0" devices="tripinfo_f_14.13" vType="t_1" speedFactor="1.10" vaporized=""/>
    <tripinfo id="f_01.11" depart="132.00" departLane="-E3_1" departPos="5.10" departSpeed="3.83" departDelay="0.00" arrival="349.00" arrivalLane="E4_0" arrivalPos="188.91" arrivalSpeed="11.49" duration="217.00" routeLength="739.66" waitingTime="115.00" waitingCount="2" stopTime="0.00" timeLoss="150.67" rerouteNo="0" devices="tripinfo_f_01.11" vType="t_1" speedFactor="0.83" vaporized=""/>
    <tripinfo id="f_01.13" depart="200.00" departLane="-E3_1" departPos="5.10" departSpeed="2.56" departDelay="44.00" arrival="350.00" arrivalLane="E4_2" arrivalPos="188.91" arrivalSpeed="14.09" duration="150.00" routeLength="734.51" waitingTime="62.00" waitingCount="1" stopTime="0.00" timeLoss="96.84" rerouteNo="0" devices="tripinfo_f_01.13" vType="t_1" speedFactor="1.04" vaporized=""/>
    <tripinfo id="f_23.17" depart="195.00" departLane="-E3_1" departPos="5.10" departSpeed="0.77" departDelay="40.00" arrival="351.00" arrivalLane="E4_1" arrivalPos="188.91" arrivalSpeed="13.61" duration="156.00" routeLength="739.66" waitingTime="63.00" waitingCount="1" stopTime="0.00" timeLoss="100.07" rerouteNo="0" devices="tripinfo_f_23.17" vType="t_1" speedFactor="0.99" vaporized=""/>
    <tripinfo id="f_01.15" depart="208.00" departLane="-E3_1" departPos="5.10" departSpeed="3.75" departDelay="28.00" arrival="353.00" arrivalLane="E4_1" arrivalPos="188.91" arrivalSpeed="13.56" duration="145.00" routeLength="739.66" waitingTime="59.00" waitingCount="1" stopTime="0.00" timeLoss="88.84" rerouteNo="0" devices="tripinfo_f_01.15" vType="t_1" speedFactor="0.99" vaporized=""/>
    <tripinfo id="f_01.12" depart="165.00" departLane="-E3_0" departPos="5.10" departSpeed="2.85" departDelay="21.00" arrival="354.00" arrivalLane="E4_0" arrivalPos="188.91" arrivalSpeed="11.51" duration="189.00" routeLength="734.49" waitingTime="77.00" waitingCount="3" stopTime="0.00" timeLoss="124.20" rerouteNo="0" devices="tripinfo_f_01.12" vType="t_1" speedFactor="0.83" vaporized=""/>
    <tripinfo id="f_12.3" depart="52.00" departLane="-E3_2" departPos="5.10" departSpeed="3.36" departDelay="20.14" arrival="355.00" arrivalLane="-E0_0" arrivalPos="97.01" arrivalSpeed="10.87" duration="303.00" routeLength="976.27" waitingTime="148.00" waitingCount="3" stopTime="0.00" timeLoss="234.65" rerouteNo="0" devices="tripinfo_f_12.3" vType="t_3" speedFactor="1.10" vaporized=""/>
    <tripinfo id="f_01.14" depart="203.00" departLane="-E3_1" departPos="5.10" departSpeed="1.48" departDelay="35.00" arrival="355.00" arrivalLane="E4_0" arrivalPos="188.91" arrivalSpeed="12.12" duration="152.00" routeLength="739.66" waitingTime="57.00" waitingCount="1" stopTime="0.00" timeLoss="95.83" rerouteNo="0" devices="tripinfo_f_01.14" vType="t_1" speedFactor="0.97" vaporized=""/>
    <tripinfo id="f_03.3" depart="55.00" departLane="-E3_2" departPos="5.10" departSpeed="3.45" departDelay="17.00" arrival="356.00" arrivalLane="-E0_0" arrivalPos="97.01" arrivalSpeed="10.82" duration="301.00" routeLength="976.27" waitingTime="147.00" waitingCount="3" stopTime="0.00" timeLoss="232.24" rerouteNo="0" devices="tripinfo_f_03.3" vType="t_3" speedFactor="1.08" vaporized=""/>
    <tripinfo id="f_24.4" depart="58.00" departLane="-E3_2" departPos="5.10" departSpeed="3.88" departDelay="19.00" arrival="358.00" arrivalLane="-E0_0" arrivalPos="97.01" arrivalSpeed="11.64" duration="300.00" routeLength="976.27" waitingTime="145.00" waitingCount="3" stopTime="0.00" timeLoss="220.10" rerouteNo="0" devices="tripinfo_f_24.4" vType="t_3" speedFactor="0.94" vaporized=""/>
    <tripinfo id="f_12.4" depart="60.00" departLane="-E3_2" departPos="5.10" departSpeed="1.55" departDelay="17.86" arrival="360.00" arrivalLane="-E0_0" arrivalPos="97.01" arrivalSpeed="12.08" duration="300.00" routeLength="976.27" waitingTime="144.00" waitingCount="3" stopTime="0.00" timeLoss="227.12" rerouteNo="0" devices="tripinfo_f_12.4" vType="t_3" speedFactor="1.02" vaporized=""/>
    <tripinfo id="f_01.16" depart="211.00" departLane="-E3_1" departPos="5.10" departSpeed="4.05" departDelay="19.00" arrival="360.00" arrivalLane="E4_0" arrivalPos="188.91" arrivalSpeed="10.09" duration="149.00" routeLength="734.49" waitingTime="50.00" waitingCount="1" stopTime="0.00" timeLoss="75.96" rerouteNo="0" devices="tripinfo_f_01.16" vType="t_1" speedFactor="0.75" vaporized=""/>
    <tripinfo id="f_24.5" depart="64.00" departLane="-E3_2" departPos="5.10" departSpeed="2.60" departDelay="16.00" arrival="364.00" arrivalLane="-E0_0" arrivalPos="97.01" arrivalSpeed="11.23" duration="300.00" routeLength="976.27" waitingTime="143.00" waitingCount="3" stopTime="0.00" timeLoss="228.05" rerouteNo="0" devices="tripinfo_f_24.5" vType="t_3" speedFactor="1.03" vaporized=""/>
    <tripinfo id="f_03.4" depart="67.00" departLane="-E3_2" departPos="5.10" departSpeed="2.89" departDelay="17.00" arrival="367.00" arrivalLane="-E0_0" arrivalPos="97.01" arrivalSpeed="11.91" duration="300.00" routeLength="976.27" waitingTime="141.00" waitingCount="3" stopTime="0.00" timeLoss="225.74" rerouteNo="0" devices="tripinfo_f_03.4" vType="t_3" speedFactor="1.01" vaporized=""/>