<?xml version="1.0" encoding="UTF-8"?>

<!-- generated on 2023-11-13 12:43:56 by Eclipse SUMO GUI Version 1.19.0
<configuration xmlns:xsi="http://www.w3.org/2001/XMLSchema-instance" xsi:noNamespaceSchemaLocation="http://sumo.dlr.de/xsd/sumoConfiguration.xsd">

    <input>
        <net-file value="/Users/yogi/Google Drive/My Drive/STUDY/NATIONAL UNIVERSITY OF SINGAPORE/Academics/CS5446 - AI Planning and Decision Making/Project/SumoProject/TwoLoops/TwoLoops.net.xml"/>
        <route-files value="/Users/yogi/Google Drive/My Drive/STUDY/NATIONAL UNIVERSITY OF SINGAPORE/Academics/CS5446 - AI Planning and Decision Making/Project/SumoProject/TwoLoops/TwoLoops.rou.xml"/>
    </input>

    <output>
        <tripinfo-output value="/Users/yogi/Google Drive/My Drive/STUDY/NATIONAL UNIVERSITY OF SINGAPORE/Academics/CS5446 - AI Planning and Decision Making/Project/SumoProject/TwoLoops/TwoLoops-tripinfo.log.xml"/>
        <statistic-output value="/Users/yogi/Google Drive/My Drive/STUDY/NATIONAL UNIVERSITY OF SINGAPORE/Academics/CS5446 - AI Planning and Decision Making/Project/SumoProject/TwoLoops/TwoLoops-statistics.log.xml"/>
    </output>

</configuration>
-->

<tripinfos xmlns:xsi="http://www.w3.org/2001/XMLSchema-instance" xsi:noNamespaceSchemaLocation="http://sumo.dlr.de/xsd/tripinfo_file.xsd">
    <tripinfo id="f_01.0" depart="0.00" departLane="-E3_0" departPos="5.10" departSpeed="14.72" departDelay="0.00" arrival="67.00" arrivalLane="E4_0" arrivalPos="188.91" arrivalSpeed="14.40" duration="67.00" routeLength="734.49" waitingTime="0.00" waitingCount="0" stopTime="0.00" timeLoss="16.49" rerouteNo="0" devices="tripinfo_f_01.0" vType="t_1" speedFactor="1.06" vaporized=""/>
    <tripinfo id="f_23.0" depart="2.00" departLane="-E3_1" departPos="5.10" departSpeed="13.03" departDelay="0.00" arrival="71.00" arrivalLane="E4_0" arrivalPos="188.91" arrivalSpeed="12.89" duration="69.00" routeLength="744.82" waitingTime="0.00" waitingCount="0" stopTime="0.00" timeLoss="9.83" rerouteNo="0" devices="tripinfo_f_23.0" vType="t_1" speedFactor="0.94" vaporized=""/>
    <tripinfo id="f_14.0" depart="3.00" departLane="-E3_0" departPos="5.10" departSpeed="15.15" departDelay="0.00" arrival="71.00" arrivalLane="E4_1" arrivalPos="188.91" arrivalSpeed="15.03" duration="68.00" routeLength="729.33" waitingTime="0.00" waitingCount="0" stopTime="0.00" timeLoss="17.18" rerouteNo="0" devices="tripinfo_f_14.0" vType="t_1" speedFactor="1.09" vaporized=""/>
    <tripinfo id="f_23.1" depart="11.00" departLane="-E3_0" departPos="5.10" departSpeed="12.87" departDelay="0.00" arrival="83.00" arrivalLane="E4_0" arrivalPos="188.91" arrivalSpeed="12.48" duration="72.00" routeLength="734.49" waitingTime="0.00" waitingCount="0" stopTime="0.00" timeLoss="13.42" rerouteNo="0" devices="tripinfo_f_23.1" vType="t_1" speedFactor="0.93" vaporized=""/>
    <tripinfo id="f_01.1" depart="12.00" departLane="-E3_1" departPos="5.10" departSpeed="12.20" departDelay="0.00" arrival="85.00" arrivalLane="E4_0" arrivalPos="188.91" arrivalSpeed="12.08" duration="73.00" routeLength="739.66" waitingTime="0.00" waitingCount="0" stopTime="0.00" timeLoss="9.98" rerouteNo="0" devices="tripinfo_f_01.1" vType="t_1" speedFactor="0.88" vaporized=""/>
    <tripinfo id="f_01.2" depart="24.00" departLane="-E3_0" departPos="5.10" departSpeed="16.03" departDelay="0.00" arrival="174.00" arrivalLane="E4_0" arrivalPos="188.91" arrivalSpeed="15.68" duration="150.00" routeLength="739.66" waitingTime="76.00" waitingCount="1" stopTime="0.00" timeLoss="101.88" rerouteNo="0" devices="tripinfo_f_01.2" vType="t_1" speedFactor="1.15" vaporized=""/>
    <tripinfo id="f_14.1" depart="14.00" departLane="-E3_0" departPos="5.10" departSpeed="13.54" departDelay="0.71" arrival="177.00" arrivalLane="E4_0" arrivalPos="188.91" arrivalSpeed="13.25" duration="163.00" routeLength="734.49" waitingTime="80.00" waitingCount="1" stopTime="0.00" timeLoss="108.11" rerouteNo="0" devices="tripinfo_f_14.1" vType="t_1" speedFactor="0.97" vaporized=""/>
    <tripinfo id="f_23.2" depart="20.00" departLane="-E3_0" departPos="5.10" departSpeed="12.74" departDelay="0.00" arrival="180.00" arrivalLane="E4_0" arrivalPos="188.91" arrivalSpeed="12.34" duration="160.00" routeLength="734.49" waitingTime="75.00" waitingCount="1" stopTime="0.00" timeLoss="101.71" rerouteNo="0" devices="tripinfo_f_23.2" vType="t_1" speedFactor="0.92" vaporized=""/>
    <tripinfo id="f_14.2" depart="24.00" departLane="-E3_1" departPos="5.10" departSpeed="13.96" departDelay="0.43" arrival="182.00" arrivalLane="E4_0" arrivalPos="188.91" arrivalSpeed="13.95" duration="158.00" routeLength="739.66" waitingTime="79.00" waitingCount="1" stopTime="0.00" timeLoss="103.35" rerouteNo="0" devices="tripinfo_f_14.2" vType="t_1" speedFactor="1.01" vaporized=""/>
    <tripinfo id="f_14.3" depart="34.00" departLane="-E3_1" departPos="5.10" departSpeed="14.42" departDelay="0.14" arrival="182.00" arrivalLane="E4_1" arrivalPos="188.91" arrivalSpeed="14.41" duration="148.00" routeLength="739.66" waitingTime="71.00" waitingCount="1" stopTime="0.00" timeLoss="94.13" rerouteNo="0" devices="tripinfo_f_14.3" vType="t_1" speedFactor="1.04" vaporized=""/>
    <tripinfo id="f_23.3" depart="29.00" departLane="-E3_0" departPos="5.10" departSpeed="15.31" departDelay="0.00" arrival="184.00" arrivalLane="E4_0" arrivalPos="188.91" arrivalSpeed="14.69" duration="155.00" routeLength="734.49" waitingTime="75.00" waitingCount="1" stopTime="0.00" timeLoss="105.59" rerouteNo="0" devices="tripinfo_f_23.3" vType="t_1" speedFactor="1.10" vaporized=""/>
    <tripinfo id="f_01.3" depart="36.00" departLane="-E3_0" departPos="5.10" departSpeed="14.49" departDelay="0.00" arrival="188.00" arrivalLane="E4_0" arrivalPos="188.91" arrivalSpeed="14.26" duration="152.00" routeLength="734.49" waitingTime="69.00" waitingCount="1" stopTime="0.00" timeLoss="100.17" rerouteNo="0" devices="tripinfo_f_01.3" vType="t_1" speedFactor="1.04" vaporized=""/>
    <tripinfo id="f_23.5" depart="47.00" departLane="-E3_1" departPos="5.10" departSpeed="13.28" departDelay="0.00" arrival="190.00" arrivalLane="E4_2" arrivalPos="188.91" arrivalSpeed="13.86" duration="143.00" routeLength="734.51" waitingTime="62.00" waitingCount="1" stopTime="0.00" timeLoss="88.62" rerouteNo="0" devices="tripinfo_f_23.5" vType="t_1" speedFactor="1.02" vaporized=""/>
    <tripinfo id="f_23.4" depart="38.00" departLane="-E3_1" departPos="5.10" departSpeed="11.81" departDelay="0.00" arrival="192.00" arrivalLane="E4_0" arrivalPos="188.91" arrivalSpeed="11.54" duration="154.00" routeLength="739.66" waitingTime="68.00" waitingCount="1" stopTime="0.00" timeLoss="89.05" rerouteNo="0" devices="tripinfo_f_23.4" vType="t_1" speedFactor="0.85" vaporized=""/>
    <tripinfo id="f_14.5" depart="55.00" departLane="-E3_1" departPos="5.10" departSpeed="10.78" departDelay="0.57" arrival="192.00" arrivalLane="E4_1" arrivalPos="188.91" arrivalSpeed="14.14" duration="137.00" routeLength="739.66" waitingTime="55.00" waitingCount="1" stopTime="0.00" timeLoss="82.60" rerouteNo="0" devices="tripinfo_f_14.5" vType="t_1" speedFactor="1.02" vaporized=""/>
    <tripinfo id="f_14.4" depart="45.00" departLane="-E3_0" departPos="5.10" departSpeed="12.49" departDelay="0.86" arrival="195.00" arrivalLane="E4_0" arrivalPos="188.91" arrivalSpeed="12.46" duration="150.00" routeLength="734.49" waitingTime="62.00" waitingCount="1" stopTime="0.00" timeLoss="89.44" rerouteNo="0" devices="tripinfo_f_14.4" vType="t_1" speedFactor="0.90" vaporized=""/>
    <tripinfo id="f_21.0" depart="0.00" departLane="-E2_1" departPos="5.10" departSpeed="14.03" departDelay="0.00" arrival="211.00" arrivalLane="E3_0" arrivalPos="54.94" arrivalSpeed="9.72" duration="211.00" routeLength="872.69" waitingTime="107.00" waitingCount="2" stopTime="0.00" timeLoss="144.90" rerouteNo="0" devices="tripinfo_f_21.0" vType="t_2" speedFactor="1.01" vaporized=""/>
    <tripinfo id="f_02.0" depart="1.00" departLane="-E2_1" departPos="5.10" departSpeed="12.15" departDelay="0.00" arrival="214.00" arrivalLane="E3_1" arrivalPos="54.94" arrivalSpeed="9.41" duration="213.00" routeLength="872.69" waitingTime="106.00" waitingCount="2" stopTime="0.00" timeLoss="151.17" rerouteNo="0" devices="tripinfo_f_02.0" vType="t_2" speedFactor="1.08" vaporized=""/>
    <tripinfo id="f_13.0" depart="2.00" departLane="-E2_1" departPos="5.10" departSpeed="9.67" departDelay="0.00" arrival="216.00" arrivalLane="E3_1" arrivalPos="54.94" arrivalSpeed="9.68" duration="214.00" routeLength="867.53" waitingTime="98.00" waitingCount="2" stopTime="0.00" timeLoss="139.41" rerouteNo="0" devices="tripinfo_f_13.0" vType="t_2" speedFactor="0.89" vaporized=""/>
    <tripinfo id="f_21.1" depart="9.00" departLane="-E2_1" departPos="5.10" departSpeed="14.54" departDelay="0.00" arrival="218.00" arrivalLane="E3_1" arrivalPos="54.94" arrivalSpeed="10.42" duration="209.00" routeLength="872.69" waitingTime="97.00" waitingCount="2" stopTime="0.00" timeLoss="145.61" rerouteNo="0" devices="tripinfo_f_21.1" vType="t_2" speedFactor="1.05" vaporized=""/>
    <tripinfo id="f_02.1" depart="13.00" departLane="-E2_1" departPos="5.10" departSpeed="16.09" departDelay="0.00" arrival="220.00" arrivalLane="E3_1" arrivalPos="54.94" arrivalSpeed="10.56" duration="207.00" routeLength="872.69" waitingTime="95.00" waitingCount="2" stopTime="0.00" timeLoss="149.41" rerouteNo="0" devices="tripinfo_f_02.1" vType="t_2" speedFactor="1.16" vaporized=""/>
    <tripinfo id="f_13.1" depart="14.00" departLane="-E2_1" departPos="5.10" departSpeed="13.96" departDelay="1.71" arrival="222.00" arrivalLane="E3_1" arrivalPos="54.94" arrivalSpeed="11.64" duration="208.00" routeLength="872.69" waitingTime="94.00" waitingCount="2" stopTime="0.00" timeLoss="142.59" rerouteNo="0" devices="tripinfo_f_13.1" vType="t_2" speedFactor="1.02" vaporized=""/>
    <tripinfo id="f_21.2" depart="18.00" departLane="-E2_1" departPos="5.10" departSpeed="11.47" departDelay="0.00" arrival="224.00" arrivalLane="E3_1" arrivalPos="54.94" arrivalSpeed="11.43" duration="206.00" routeLength="867.53" waitingTime="84.00" waitingCount="2" stopTime="0.00" timeLoss="125.39" rerouteNo="0" devices="tripinfo_f_21.2" vType="t_2" speedFactor="0.83" vaporized=""/>
    <tripinfo id="f_12.0" depart="1.00" departLane="-E3_2" departPos="5.10" departSpeed="14.31" departDelay="0.00" arrival="257.00" arrivalLane="-E0_0" arrivalPos="97.01" arrivalSpeed="11.58" duration="256.00" routeLength="976.27" waitingTime="127.00" waitingCount="3" stopTime="0.00" timeLoss="183.66" rerouteNo="0" devices="tripinfo_f_12.0" vType="t_3" speedFactor="1.03" vaporized=""/>
    <tripinfo id="f_01.4" depart="48.00" departLane="-E3_0" departPos="5.10" departSpeed="13.14" departDelay="0.00" arrival="286.00" arrivalLane="E4_0" arrivalPos="188.91" arrivalSpeed="13.33" duration="238.00" routeLength="734.49" waitingTime="138.00" waitingCount="2" stopTime="0.00" timeLoss="181.75" rerouteNo="0" devices="tripinfo_f_01.4" vType="t_1" speedFactor="0.97" vaporized=""/>
    <tripinfo id="f_01.5" depart="60.00" departLane="-E3_1" departPos="5.10" departSpeed="7.92" departDelay="0.00" arrival="287.00" arrivalLane="E4_1" arrivalPos="188.91" arrivalSpeed="12.68" duration="227.00" routeLength="739.66" waitingTime="131.00" waitingCount="2" stopTime="0.00" timeLoss="167.56" rerouteNo="0" devices="tripinfo_f_01.5" vType="t_1" speedFactor="0.94" vaporized=""/>
    <tripinfo id="f_23.6" depart="56.00" departLane="-E3_0" departPos="5.10" departSpeed="10.78" departDelay="0.00" arrival="288.00" arrivalLane="E4_0" arrivalPos="188.91" arrivalSpeed="14.04" duration="232.00" routeLength="734.49" waitingTime="130.00" waitingCount="2" stopTime="0.00" timeLoss="179.15" rerouteNo="0" devices="tripinfo_f_23.6" vType="t_1" speedFactor="1.02" vaporized=""/>
    <tripinfo id="f_14.6" depart="65.00" departLane="-E3_1" departPos="5.10" departSpeed="3.83" departDelay="0.28" arrival="288.00" arrivalLane="E4_1" arrivalPos="188.91" arrivalSpeed="13.42" duration="223.00" routeLength="739.66" waitingTime="128.00" waitingCount="2" stopTime="0.00" timeLoss="168.46" rerouteNo="0" devices="tripinfo_f_14.6" vType="t_1" speedFactor="1.02" vaporized=""/>
    <tripinfo id="f_23.7" depart="65.00" departLane="-E3_0" departPos="5.10" departSpeed="7.92" departDelay="0.00" arrival="290.00" arrivalLane="E4_0" arrivalPos="188.91" arrivalSpeed="13.58" duration="225.00" routeLength="734.49" waitingTime="123.00" waitingCount="2" stopTime="0.00" timeLoss="171.33" rerouteNo="0" devices="tripinfo_f_23.7" vType="t_1" speedFactor="1.00" vaporized=""/>
    <tripinfo id="f_01.6" depart="72.00" departLane="-E3_0" departPos="5.10" departSpeed="3.83" departDelay="0.00" arrival="291.00" arrivalLane="E4_2" arrivalPos="188.91" arrivalSpeed="15.66" duration="219.00" routeLength="729.34" waitingTime="118.00" waitingCount="2" stopTime="0.00" timeLoss="171.88" rerouteNo="0" devices="tripinfo_f_01.6" vType="t_1" speedFactor="1.15" vaporized=""/>
    <tripinfo id="f_14.7" depart="125.00" departLane="-E3_1" departPos="5.10" departSpeed="2.09" departDelay="50.00" arrival="292.00" arrivalLane="E4_0" arrivalPos="188.91" arrivalSpeed="14.43" duration="167.00" routeLength="744.82" waitingTime="82.00" waitingCount="1" stopTime="0.00" timeLoss="114.05" rerouteNo="0" devices="tripinfo_f_14.7" vType="t_1" speedFactor="1.06" vaporized=""/>
    <tripinfo id="f_23.8" depart="120.00" departLane="-E3_1" departPos="5.10" departSpeed="1.32" departDelay="46.00" arrival="293.00" arrivalLane="E4_1" arrivalPos="188.91" arrivalSpeed="12.02" duration="173.00" routeLength="739.66" waitingTime="77.00" waitingCount="1" stopTime="0.00" timeLoss="111.21" rerouteNo="0" devices="tripinfo_f_23.8" vType="t_1" speedFactor="0.89" vaporized=""/>
    <tripinfo id="f_14.9" depart="142.00" departLane="-E3_0" departPos="5.10" departSpeed="2.69" departDelay="46.43" arrival="293.00" arrivalLane="E4_0" arrivalPos="188.91" arrivalSpeed="14.97" duration="151.00" routeLength="734.49" waitingTime="58.00" waitingCount="2" stopTime="0.00" timeLoss="104.82" rerouteNo="0" devices="tripinfo_f_14.9" vType="t_1" speedFactor="1.18" vaporized=""/>
    <tripinfo id="f_23.9" depart="129.00" departLane="-E3_1" departPos="5.10" departSpeed="2.04" departDelay="46.00" arrival="295.00" arrivalLane="E4_1" arrivalPos="188.91" arrivalSpeed="13.32" duration="166.00" routeLength="739.66" waitingTime="80.00" waitingCount="1" stopTime="0.00" timeLoss="115.04" rerouteNo="0" devices="tripinfo_f_23.9" vType="t_1" speedFactor="1.10" vaporized=""/>
    <tripinfo id="f_01.7" depart="133.00" departLane="-E3_1" departPos="5.10" departSpeed="3.21" departDelay="49.00" arrival="296.00" arrivalLane="E4_1" arrivalPos="188.91" arrivalSpeed="13.35" duration="163.00" routeLength="739.66" waitingTime="79.00" waitingCount="1" stopTime="0.00" timeLoss="111.37" rerouteNo="0" devices="tripinfo_f_01.7" vType="t_1" speedFactor="1.06" vaporized=""/>
    <tripinfo id="f_14.8" depart="136.00" departLane="-E3_1" departPos="5.10" departSpeed="3.48" departDelay="50.71" arrival="299.00" arrivalLane="E4_0" arrivalPos="188.91" arrivalSpeed="14.01" duration="163.00" routeLength="739.66" waitingTime="79.00" waitingCount="1" stopTime="0.00" timeLoss="107.69" rerouteNo="0" devices="tripinfo_f_14.8" vType="t_1" speedFactor="1.01" vaporized=""/>
    <tripinfo id="f_23.10" depart="139.00" departLane="-E3_1" departPos="5.10" departSpeed="4.43" departDelay="47.00" arrival="304.00" arrivalLane="E4_1" arrivalPos="188.91" arrivalSpeed="12.74" duration="165.00" routeLength="739.66" waitingTime="78.00" waitingCount="1" stopTime="0.00" timeLoss="104.70" rerouteNo="0" devices="tripinfo_f_23.10" vType="t_1" speedFactor="0.93" vaporized=""/>
    <tripinfo id="f_14.10" depart="180.00" departLane="-E3_0" departPos="5.10" departSpeed="1.28" departDelay="74.14" arrival="305.00" arrivalLane="E4_0" arrivalPos="188.91" arrivalSpeed="11.13" duration="125.00" routeLength="734.49" waitingTime="27.00" waitingCount="1" stopTime="0.00" timeLoss="58.37" rerouteNo="0" devices="tripinfo_f_14.10" vType="t_1" speedFactor="0.82" vaporized=""/>
    <tripinfo id="f_01.9" depart="184.00" departLane="-E3_0" departPos="5.10" departSpeed="0.06" departDelay="76.00" arrival="307.00" arrivalLane="E4_0" arrivalPos="188.91" arrivalSpeed="12.60" duration="123.00" routeLength="734.49" waitingTime="26.00" waitingCount="2" stopTime="0.00" timeLoss="73.58" rerouteNo="0" devices="tripinfo_f_01.9" vType="t_1" speedFactor="1.12" vaporized=""/>
    <tripinfo id="f_13.2" depart="23.00" departLane="-E2_1" departPos="5.10" departSpeed="16.37" departDelay="0.43" arrival="322.00" arrivalLane="E3_1" arrivalPos="54.94" arrivalSpeed="9.04" duration="299.00" routeLength="872.69" waitingTime="180.00" waitingCount="3" stopTime="0.00" timeLoss="241.69" rerouteNo="0" devices="tripinfo_f_13.2" vType="t_2" speedFactor="1.18" vaporized=""/>
    <tripinfo id="f_02.2" depart="25.00" departLane="-E2_1" departPos="5.10" departSpeed="16.28" departDelay="0.00" arrival="324.00" arrivalLane="E3_1" arrivalPos="54.94" arrivalSpeed="10.17" duration="299.00" routeLength="872.69" waitingTime="187.00" waitingCount="3" stopTime="0.00" timeLoss="241.81" rerouteNo="0" devices="tripinfo_f_02.2" vType="t_2" speedFactor="1.17" vaporized=""/>
    <tripinfo id="f_13.3" depart="33.00" departLane="-E2_1" departPos="5.10" departSpeed="15.17" departDelay="0.14" arrival="327.00" arrivalLane="E3_1" arrivalPos="54.94" arrivalSpeed="10.58" duration="294.00" routeLength="872.69" waitingTime="175.00" waitingCount="3" stopTime="0.00" timeLoss="232.70" rerouteNo="0" devices="tripinfo_f_13.3" vType="t_2" speedFactor="1.09" vaporized=""/>
    <tripinfo id="f_21.4" depart="36.00" departLane="-E2_1" departPos="5.10" departSpeed="15.11" departDelay="0.00" arrival="329.00" arrivalLane="E3_1" arrivalPos="54.94" arrivalSpeed="10.63" duration="293.00" routeLength="872.69" waitingTime="172.00" waitingCount="3" stopTime="0.00" timeLoss="230.99" rerouteNo="0" devices="tripinfo_f_21.4" vType="t_2" speedFactor="1.09" vaporized=""/>
    <tripinfo id="f_21.5" depart="45.00" departLane="-E2_1" departPos="5.10" departSpeed="11.70" departDelay="0.00" arrival="331.00" arrivalLane="E3_1" arrivalPos="54.94" arrivalSpeed="10.67" duration="286.00" routeLength="862.37" waitingTime="150.00" waitingCount="3" stopTime="0.00" timeLoss="219.35" rerouteNo="0" devices="tripinfo_f_21.5" vType="t_2" speedFactor="1.00" vaporized=""/>
    <tripinfo id="f_21.3" depart="27.00" departLane="-E2_1" departPos="5.10" departSpeed="14.16" departDelay="0.00" arrival="333.00" arrivalLane="E3_1" arrivalPos="54.94" arrivalSpeed="10.74" duration="306.00" routeLength="867.53" waitingTime="164.00" waitingCount="4" stopTime="0.00" timeLoss="241.16" rerouteNo="0" devices="tripinfo_f_21.3" vType="t_2" speedFactor="1.02" vaporized=""/>
    <tripinfo id="f_02.4" depart="49.00" departLane="-E2_1" departPos="5.10" departSpeed="11.97" departDelay="0.00" arrival="335.00" arrivalLane="E3_1" arrivalPos="54.94" arrivalSpeed="10.94" duration="286.00" routeLength="872.69" waitingTime="144.00" waitingCount="4" stopTime="0.00" timeLoss="225.70" rerouteNo="0" devices="tripinfo_f_02.4" vType="t_2" speedFactor="1.12" vaporized=""/>
    <tripinfo id="f_11.0" depart="0.00" departLane="E0_1" departPos="5.10" departSpeed="13.03" departDelay="0.00" arrival="349.00" arrivalLane="E6_1" arrivalPos="164.23" arrivalSpeed="12.69" duration="349.00" routeLength="1129.37" waitingTime="171.00" waitingCount="4" stopTime="0.00" timeLoss="257.89" rerouteNo="0" devices="tripinfo_f_11.0" vType="t_4" speedFactor="0.94" vaporized=""/>
    <tripinfo id="f_11.1" depart="11.00" departLane="E0_1" departPos="5.10" departSpeed="13.77" departDelay="0.71" arrival="351.00" arrivalLane="E6_1" arrivalPos="164.23" arrivalSpeed="13.75" duration="340.00" routeLength="1134.53" waitingTime="154.00" waitingCount="4" stopTime="0.00" timeLoss="253.71" rerouteNo="0" devices="tripinfo_f_11.1" vType="t_4" speedFactor="0.99" vaporized=""/>
    <tripinfo id="f_03.0" depart="2.00" departLane="-E3_2" departPos="5.10" departSpeed="12.67" departDelay="0.00" arrival="367.00" arrivalLane="-E0_0" arrivalPos="97.01" arrivalSpeed="11.82" duration="365.00" routeLength="971.11" waitingTime="204.00" waitingCount="6" stopTime="0.00" timeLoss="293.19" rerouteNo="0" devices="tripinfo_f_03.0" vType="t_3" speedFactor="1.05" vaporized=""/>
    <tripinfo id="f_23.12" depart="190.00" departLane="-E3_0" departPos="5.10" departSpeed="2.67" departDelay="80.00" arrival="396.00" arrivalLane="E4_0" arrivalPos="188.91" arrivalSpeed="14.22" duration="206.00" routeLength="734.49" waitingTime="104.00" waitingCount="2" stopTime="0.00" timeLoss="152.07" rerouteNo="0" devices="tripinfo_f_23.12" vType="t_1" speedFactor="1.04" vaporized=""/>
    <tripinfo id="f_14.11" depart="193.00" departLane="-E3_0" departPos="5.10" departSpeed="1.73" departDelay="76.85" arrival="397.00" arrivalLane="E4_0" arrivalPos="188.91" arrivalSpeed="14.78" duration="204.00" routeLength="734.49" waitingTime="102.00" waitingCount="2" stopTime="0.00" timeLoss="154.45" rerouteNo="0" devices="tripinfo_f_14.11" vType="t_1" speedFactor="1.11" vaporized=""/>
    <tripinfo id="f_01.8" depart="141.00" departLane="-E3_1" departPos="5.10" departSpeed="2.09" departDelay="45.00" arrival="399.00" arrivalLane="E4_0" arrivalPos="188.91" arrivalSpeed="12.45" duration="258.00" routeLength="739.66" waitingTime="155.00" waitingCount="2" stopTime="0.00" timeLoss="197.02" rerouteNo="0" devices="tripinfo_f_01.8" vType="t_1" speedFactor="0.92" vaporized=""/>
    <tripinfo id="f_23.11" depart="145.00" departLane="-E3_1" departPos="5.10" departSpeed="2.26" departDelay="44.00" arrival="399.00" arrivalLane="E4_2" arrivalPos="188.91" arrivalSpeed="14.10" duration="254.00" routeLength="734.51" waitingTime="153.00" waitingCount="2" stopTime="0.00" timeLoss="200.28" rerouteNo="0" devices="tripinfo_f_23.11" vType="t_1" speedFactor="1.03" vaporized=""/>
    <tripinfo id="f_23.13" depart="197.00" departLane="-E3_0" departPos="5.10" departSpeed="2.28" departDelay="78.00" arrival="401.00" arrivalLane="E4_0" arrivalPos="188.91" arrivalSpeed="12.91" duration="204.00" routeLength="734.49" waitingTime="99.00" waitingCount="2" stopTime="0.00" timeLoss="145.71" rerouteNo="0" devices="tripinfo_f_23.13" vType="t_1" speedFactor="0.94" vaporized=""/>
    <tripinfo id="f_14.12" depart="229.00" departLane="-E3_1" departPos="5.10" departSpeed="0.24" departDelay="102.57" arrival="402.00" arrivalLane="E4_1" arrivalPos="188.91" arrivalSpeed="12.67" duration="173.00" routeLength="739.66" waitingTime="76.00" waitingCount="1" stopTime="0.00" timeLoss="112.75" rerouteNo="0" devices="tripinfo_f_14.12" vType="t_1" speedFactor="0.93" vaporized=""/>
    <tripinfo id="f_23.14" depart="235.00" departLane="-E3_1" departPos="5.10" departSpeed="1.33" departDelay="107.00" arrival="402.00" arrivalLane="E4_2" arrivalPos="188.91" arrivalSpeed="14.43" duration="167.00" routeLength="734.51" waitingTime="75.00" waitingCount="1" stopTime="0.00" timeLoss="115.37" rerouteNo="0" devices="tripinfo_f_23.14" vType="t_1" speedFactor="1.06" vaporized=""/>
    <tripinfo id="f_01.10" depart="200.00" departLane="-E3_0" departPos="5.10" departSpeed="1.05" departDelay="80.00" arrival="403.00" arrivalLane="E4_0" arrivalPos="188.91" arrivalSpeed="14.12" duration="203.00" routeLength="734.49" waitingTime="96.00" waitingCount="2" stopTime="0.00" timeLoss="154.15" rerouteNo="0" devices="tripinfo_f_01.10" vType="t_1" speedFactor="1.13" vaporized=""/>
    <tripinfo id="f_01.11" depart="239.00" departLane="-E3_1" departPos="5.10" departSpeed="1.84" departDelay="107.00" arrival="403.00" arrivalLane="E4_1" arrivalPos="188.91" arrivalSpeed="13.16" duration="164.00" routeLength="734.50" waitingTime="78.00" waitingCount="1" stopTime="0.00" timeLoss="118.04" rerouteNo="0" devices="tripinfo_f_01.11" vType="t_1" speedFactor="1.18" vaporized=""/>
    <tripinfo id="f_01.12" depart="250.00" departLane="-E3_0" departPos="5.10" departSpeed="5.22" departDelay="106.00" arrival="405.00" arrivalLane="E4_2" arrivalPos="188.91" arrivalSpeed="13.37" duration="155.00" routeLength="729.34" waitingTime="60.00" waitingCount="2" stopTime="0.00" timeLoss="99.59" rerouteNo="0" devices="tripinfo_f_01.12" vType="t_1" speedFactor="0.98" vaporized=""/>
    <tripinfo id="f_23.17" depart="252.00" departLane="-E3_0" departPos="5.10" departSpeed="0.97" departDelay="97.00" arrival="405.00" arrivalLane="E4_0" arrivalPos="188.91" arrivalSpeed="15.18" duration="153.00" routeLength="734.49" waitingTime="58.00" waitingCount="2" stopTime="0.00" timeLoss="103.49" rerouteNo="0" devices="tripinfo_f_23.17" vType="t_1" speedFactor="1.10" vaporized=""/>
    <tripinfo id="f_23.15" depart="243.00" departLane="-E3_1" departPos="5.10" departSpeed="1.74" departDelay="106.00" arrival="408.00" arrivalLane="E4_0" arrivalPos="188.91" arrivalSpeed="12.50" duration="165.00" routeLength="739.66" waitingTime="75.00" waitingCount="1" stopTime="0.00" timeLoss="104.71" rerouteNo="0" devices="tripinfo_f_23.15" vType="t_1" speedFactor="0.91" vaporized=""/>
    <tripinfo id="f_14.13" depart="247.00" departLane="-E3_1" departPos="5.10" departSpeed="2.66" departDelay="110.28" arrival="408.00" arrivalLane="E4_2" arrivalPos="188.91" arrivalSpeed="13.65" duration="161.00" routeLength="734.51" waitingTime="74.00" waitingCount="1" stopTime="0.00" timeLoss="105.92" rerouteNo="0" devices="tripinfo_f_14.13" vType="t_1" speedFactor="1.00" vaporized=""/>
    <tripinfo id="f_24.0" depart="3.00" departLane="-E3_2" departPos="5.10" departSpeed="10.87" departDelay="0.00" arrival="409.00" arrivalLane="-E0_0" arrivalPos="97.01" arrivalSpeed="11.42" duration="406.00" routeLength="976.27" waitingTime="233.00" waitingCount="7" stopTime="0.00" timeLoss="332.79" rerouteNo="0" devices="tripinfo_f_24.0" vType="t_3" speedFactor="1.03" vaporized=""/>
    <tripinfo id="f_23.16" depart="250.00" departLane="-E3_1" departPos="5.10" departSpeed="1.47" departDelay="104.00" arrival="413.00" arrivalLane="E4_1" arrivalPos="188.91" arrivalSpeed="12.68" duration="163.00" routeLength="739.66" waitingTime="72.00" waitingCount="1" stopTime="0.00" timeLoss="102.91" rerouteNo="0" devices="tripinfo_f_23.16" vType="t_1" speedFactor="0.92" vaporized=""/>
    <tripinfo id="f_01.16" depart="290.00" departLane="-E3_0" departPos="5.10" departSpeed="1.58" departDelay="98.00" arrival="413.00" arrivalLane="E4_0" arrivalPos="188.91" arrivalSpeed="13.02" duration="123.00" routeLength="734.49" waitingTime="30.00" waitingCount="1" stopTime="0.00" timeLoss="66.24" rerouteNo="0" devices="tripinfo_f_01.16" vType="t_1" speedFactor="0.95" vaporized=""/>
    <tripinfo id="f_12.1" depart="12.00" departLane="-E3_2" departPos="5.10" departSpeed="11.08" departDelay="0.71" arrival="414.00" arrivalLane="-E0_0" arrivalPos="97.01" arrivalSpeed="6.80" duration="402.00" routeLength="976.27" waitingTime="223.00" waitingCount="7" stopTime="0.00" timeLoss="322.96" rerouteNo="0" devices="tripinfo_f_12.1" vType="t_3" speedFactor="0.94" vaporized=""/>
    <tripinfo id="f_01.13" depart="254.00" departLane="-E3_1" departPos="5.10" departSpeed="1.16" departDelay="98.00" arrival="414.00" arrivalLane="E4_2" arrivalPos="188.91" arrivalSpeed="13.88" duration="160.00" routeLength="734.51" waitingTime="72.00" waitingCount="1" stopTime="0.00" timeLoss="106.08" rerouteNo="0" devices="tripinfo_f_01.13" vType="t_1" speedFactor="1.03" vaporized=""/>
    <tripinfo id="f_24.1" depart="13.00" departLane="-E3_2" departPos="5.10" departSpeed="8.86" departDelay="1.00" arrival="418.00" arrivalLane="-E0_0" arrivalPos="97.01" arrivalSpeed="3.18" duration="405.00" routeLength="976.27" waitingTime="222.00" waitingCount="6" stopTime="0.00" timeLoss="325.64" rerouteNo="0" devices="tripinfo_f_24.1" vType="t_3" speedFactor="0.94" vaporized=""/>
    <tripinfo id="f_03.1" depart="14.00" departLane="-E3_2" departPos="5.10" departSpeed="6.00" departDelay="0.00" arrival="421.00" arrivalLane="-E0_0" arrivalPos="97.01" arrivalSpeed="4.17" duration="407.00" routeLength="976.27" waitingTime="223.00" waitingCount="7" stopTime="0.00" timeLoss="333.45" rerouteNo="0" devices="tripinfo_f_03.1" vType="t_3" speedFactor="1.01" vaporized=""/>
    <tripinfo id="f_24.2" depart="21.00" departLane="-E3_2" departPos="5.10" departSpeed="3.42" departDelay="0.00" arrival="424.00" arrivalLane="-E0_0" arrivalPos="97.01" arrivalSpeed="4.67" duration="403.00" routeLength="976.27" waitingTime="215.00" waitingCount="6" stopTime="0.00" timeLoss="337.00" rerouteNo="0" devices="tripinfo_f_24.2" vType="t_3" speedFactor="1.13" vaporized=""/>
    <tripinfo id="f_12.2" depart="70.00" departLane="-E3_2" departPos="5.10" departSpeed="0.74" departDelay="48.43" arrival="426.00" arrivalLane="-E0_1" arrivalPos="97.01" arrivalSpeed="6.92" duration="356.00" routeLength="976.27" waitingTime="201.00" waitingCount="4" stopTime="0.00" timeLoss="275.48" rerouteNo="0" devices="tripinfo_f_12.2" vType="t_3" speedFactor="0.93" vaporized=""/>
    <tripinfo id="f_03.2" depart="75.00" departLane="-E3_2" departPos="5.10" departSpeed="1.24" departDelay="49.00" arrival="426.00" arrivalLane="-E0_0" arrivalPos="97.01" arrivalSpeed="8.25" duration="351.00" routeLength="976.27" waitingTime="194.00" waitingCount="4" stopTime="0.00" timeLoss="276.05" rerouteNo="0" devices="tripinfo_f_03.2" vType="t_3" speedFactor="0.99" vaporized=""/>
    <tripinfo id="f_02.3" depart="37.00" departLane="-E2_1" departPos="5.10" departSpeed="12.93" departDelay="0.00" arrival="431.00" arrivalLane="E3_1" arrivalPos="54.94" arrivalSpeed="9.33" duration="394.00" routeLength="872.69" waitingTime="244.00" waitingCount="4" stopTime="0.00" timeLoss="327.12" rerouteNo="0" devices="tripinfo_f_02.3" vType="t_2" speedFactor="1.00" vaporized=""/>